 operating system is UNIX !
 hostname is         n318

   OpenMP run-time library returned nthreads = 16

 dscf (n318) : TURBOMOLE V6.6( 19103 ) 21 May 2014 at 12:58:31
 Copyright (C) 2014 TURBOMOLE GmbH, Karlsruhe


    2014-10-30 15:25:21.868 



                             d s c f - program

                   idea & directorship : reinhart ahlrichs
                   program development : marco haeser
                                         michael baer
                           dft version : oliver treutler


                          quantum chemistry group
                          universitaet  karlsruhe
                                  germany




                          References             
                                                 
          TURBOMOLE:                             
              R. Ahlrichs, M. Baer, M. Haeser, H. Horn, and
              C. Koelmel
              Electronic structure calculations on workstation
              computers: the program system TURBOMOLE
              Chem. Phys. Lett. 162: 165 (1989)
          Density Functional:                              
              O. Treutler and R. Ahlrichs                      
              Efficient Molecular Numerical Integration Schemes
              J. Chem. Phys. 102: 346 (1995)                   
          Parallel Version:                                
              Performance of parallel TURBOMOLE for Density    
              Functional Calculations                          
              M. v. Arnim and R. Ahlrichs                      
              J. Comp. Chem. 19: 1746 (1998)                   
                                         



 UHF mode switched on !


              +--------------------------------------------------+
              | Atomic coordinate, charge and isotop information |
              +--------------------------------------------------+

                    atomic coordinates            atom    charge  isotop
          0.00000000    0.00000000   -0.88319847    o      8.000     0
          2.12011965    0.00000000    0.44159933    o      8.000     0
         -2.12011965    0.00000000    0.44159933    o      8.000     0
 
       center of nuclear mass  :    0.00000000    0.00000000    0.00000006
       center of nuclear charge:    0.00000000    0.00000000    0.00000006

   *************************************************************************
   ozone                                                                    
   *************************************************************************



              +--------------------------------------------------+
              |               basis set information              |
              +--------------------------------------------------+

              we will work with the 1s 3p 5d 7f 9g ... basis set
              ...i.e. with spherical basis functions...

   type   atoms  prim   cont   basis
   ---------------------------------------------------------------------------
    o        3     34     14   cc-pVDZ   [3s2p1d|17s4p1d]
   ---------------------------------------------------------------------------
   total:    3    102     42
   ---------------------------------------------------------------------------

   total number of primitive shells          :   22
   total number of contracted shells         :   18
   total number of cartesian basis functions :   45
   total number of SCF-basis functions       :   42


 integral neglect threshold       :  0.74E-10
 integral storage threshold THIZE :  0.10E-04
 integral storage threshold THIME :         5


 symmetry group of the molecule :   c1 

 the group has the following generators :
   c1(z)

    1 symmetry operations found

 there are 1 real representations :   a   

 maximum number of shells which are related by symmetry :  1


    mo occupation :
   irrep   mo's   occupied
    a       42       12
 
 number of basis functions   :           42
 number of occupied orbitals :           12
 

          ------------------------
          nuclear repulsion energy  :   66.2935018889    
          ------------------------

 
          -----------------
          -S,T+V- integrals
          -----------------

 1e-integrals will be neglected if expon. factor < 0.742658E-11
 
   Difference densities algorithm switched on.
   The maximal number of linear combinations of
   difference densities is          20 .

 automatic virtual orbital shift switched on 
      shift if e(lumo)-e(homo) < 0.10000000    


 DIIS switched on: error vector is FDS-SDF
 Max. Iterations for DIIS is     :   5
 DIIS matrix (see manual) 
    Scaling factor of diagonals  :  1.200
    threshold for scaling factor :  0.000

 scf convergence criterion : increment of total energy < .1000000D-06
                  and increment of one-electron energy < .1000000D-03


 <geterg> : there is no data group $energy 

  MOs are in ASCII format !


 reading orbital data $uhfmo_alpha  from file alpha . 

 orbital characterization : expanded
 

 reading orbital data $uhfmo_beta  from file beta . 

 orbital characterization : expanded
 
 mo provided and orthogonalized by Cholesky decomposition
 mo provided and orthogonalized by Cholesky decomposition

 DSCF restart information will be dumped onto file alpha

 
                                              current damping :  1.000
 ITERATION  ENERGY          1e-ENERGY        2e-ENERGY     NORM[dD(SAO)]  TOL
   1  -223.63379254664    -436.95147068     147.02417624    0.000D+00 0.741D-10
          max. resid. norm for Fia-block=  4.290D-01 for orbital      9a    alpha
          max. resid. fock norm         =  1.426D+00 for orbital     19a    alpha
          Delta Eig. =    30.7979350916 eV 
 
                                              current damping :  0.950
 ITERATION  ENERGY          1e-ENERGY        2e-ENERGY     NORM[dD(SAO)]  TOL
   2  -224.10041395240    -438.69471171     148.30079587    0.433D+00 0.471D-10
          Norm of current diis error: 0.71026    
          max. resid. norm for Fia-block=  1.655D-01 for orbital      9a    beta 
          max. resid. fock norm         =  2.404D-01 for orbital     15a    alpha
          Delta Eig. =    15.5914672739 eV 
 
                                              current damping :  0.850
 ITERATION  ENERGY          1e-ENERGY        2e-ENERGY     NORM[dD(SAO)]  TOL
   3  -224.19069425905    -439.41180094     148.92760479    0.151D+00 0.370D-10
          Norm of current diis error: 0.37036    
          max. resid. norm for Fia-block=  9.756D-02 for orbital      9a    beta 
          max. resid. fock norm         =  1.293D-01 for orbital     14a    beta 
          Delta Eig. =     8.4396011341 eV 
 
                                              current damping :  0.700
 ITERATION  ENERGY          1e-ENERGY        2e-ENERGY     NORM[dD(SAO)]  TOL
   4  -224.22458629313    -439.76226195     149.24417377    0.257D-01 0.299D-10
          Norm of current diis error: 0.19186    
          max. resid. norm for Fia-block=  5.844D-02 for orbital      9a    beta 
          max. resid. fock norm         =  7.386D-02 for orbital     14a    beta 
          Delta Eig. =     4.3483812403 eV 
 
                                              current damping :  0.550
 ITERATION  ENERGY          1e-ENERGY        2e-ENERGY     NORM[dD(SAO)]  TOL
   5  -224.23738829243    -439.94405786     149.41316768    0.854D-02 0.253D-10
          Norm of current diis error: 0.94215E-01
          max. resid. norm for Fia-block=  3.469D-02 for orbital      6a    beta 
          max. resid. fock norm         =  4.045D-02 for orbital     14a    beta 
 mo-orthogonalization: Cholesky decomposition
          Delta Eig. =     2.0053545783 eV 
 
                                              current damping :  0.400
 ITERATION  ENERGY          1e-ENERGY        2e-ENERGY     NORM[dD(SAO)]  TOL
   6  -224.24163596194    -440.03331075     149.49817289    0.207D-02 0.223D-10
          Norm of current diis error: 0.42797E-01
          max. resid. norm for Fia-block=  1.751D-02 for orbital      6a    alpha
          max. resid. fock norm         =  1.987D-02 for orbital     14a    alpha
          Delta Eig. =     0.8028212712 eV 
 
                                              current damping :  0.250
 ITERATION  ENERGY          1e-ENERGY        2e-ENERGY     NORM[dD(SAO)]  TOL
   7  -224.24278225952    -440.07094715     149.53466300    0.799D-03 0.202D-10
          Norm of current diis error: 0.18038E-01
          max. resid. norm for Fia-block=  8.211D-03 for orbital      8a    beta 
          max. resid. fock norm         =  8.812D-03 for orbital     15a    alpha
          Delta Eig. =     0.2557366031 eV 
 
                                              current damping :  0.100
 ITERATION  ENERGY          1e-ENERGY        2e-ENERGY     NORM[dD(SAO)]  TOL
   8  -224.24303885247    -440.08667376     149.55013302    0.834D-03 0.187D-10
          Norm of current diis error: 0.63435E-02
          max. resid. norm for Fia-block=  2.908D-03 for orbital      8a    alpha
          max. resid. fock norm         =  3.446D-03 for orbital     15a    beta 
          Delta Eig. =     0.0572921155 eV 
 
                                              current damping :  0.100
 ITERATION  ENERGY          1e-ENERGY        2e-ENERGY     NORM[dD(SAO)]  TOL
   9  -224.24308120648    -440.09124419     149.55466109    0.441D-03 0.176D-10
          Norm of current diis error: 0.24633E-02
          max. resid. norm for Fia-block=  1.198D-03 for orbital     10a    beta 
          max. resid. fock norm         =  1.411D-03 for orbital     15a    alpha
          Delta Eig. =     0.0141229763 eV 
 
                                              current damping :  0.100
 ITERATION  ENERGY          1e-ENERGY        2e-ENERGY     NORM[dD(SAO)]  TOL
  10  -224.24308785723    -440.09253799     149.55594825    0.146D-03 0.170D-10
          Norm of current diis error: 0.10955E-02
          max. resid. norm for Fia-block=  5.223D-04 for orbital     10a    beta 
          max. resid. fock norm         =  5.320D-04 for orbital     10a    alpha
 mo-orthogonalization: Cholesky decomposition
          Delta Eig. =     0.0092136010 eV 
 
                                              current damping :  0.150
 ITERATION  ENERGY          1e-ENERGY        2e-ENERGY     NORM[dD(SAO)]  TOL
  11  -224.24308925397    -440.09204263     149.55545149    0.592D-04 0.166D-10
          Norm of current diis error: 0.68363E-03
          max. resid. norm for Fia-block=  3.054D-04 for orbital     10a    alpha
          max. resid. fock norm         =  3.589D-04 for orbital     15a    alpha
          Delta Eig. =     0.0104844458 eV 
 
                                              current damping :  0.200
 ITERATION  ENERGY          1e-ENERGY        2e-ENERGY     NORM[dD(SAO)]  TOL
  12  -224.24308960643    -440.09252368     149.55593218    0.429D-01 0.211D-10
          Norm of current diis error: 0.28625E-03
          max. resid. norm for Fia-block=  1.575D-04 for orbital      9a    beta 
          max. resid. fock norm         =  1.575D-04 for orbital      9a    beta 
          Delta Eig. =     0.0029193278 eV 
 
                                              current damping :  0.250
 ITERATION  ENERGY          1e-ENERGY        2e-ENERGY     NORM[dD(SAO)]  TOL
  13  -224.24308967872    -440.09230498     149.55571342    0.180D-04 0.212D-10
          Norm of current diis error: 0.12384E-03
          max. resid. norm for Fia-block=  7.507D-05 for orbital      7a    alpha
          max. resid. fock norm         =  7.883D-05 for orbital      7a    alpha
          Delta Eig. =     0.0008380865 eV 

 ENERGY CONVERGED !

 
                                              current damping :  0.300
 ITERATION  ENERGY          1e-ENERGY        2e-ENERGY     NORM[dD(SAO)]  TOL
  14  -224.24308969593    -440.09233370     149.55574212    0.284D-04 0.211D-10
          max. resid. norm for Fia-block=  2.076D-05 for orbital      9a    alpha
          max. resid. fock norm         =  2.182D-05 for orbital     14a    alpha

 convergence criteria satisfied after 14 iterations


   *************************************************************************
   ozone                                                                    
   *************************************************************************


                  ------------------------------------------ 
                 |  total energy      =   -224.24308969593  |
                  ------------------------------------------ 
                 :  kinetic energy    =    223.73832425500  :
                 :  potential energy  =   -447.98141395093  :
                 :  virial theorem    =      1.99774902566  :
                 :  wavefunction norm =      1.00000000000  :
                  .......................................... 


 <geterg> : there is no data group $energy 


 <skperg> : $end is missing 


 orbitals $uhfmo_beta  will be written to file beta

 orbitals $uhfmo_alpha  will be written to file alpha
 
 alpha: 

    irrep                  8a          9a         10a         11a         12a   
 eigenvalues H         -0.77992    -0.74979    -0.56165    -0.55371    -0.47907
            eV         -21.2228    -20.4029    -15.2834    -15.0673    -13.0364
 occupation              1.0000      1.0000      1.0000      1.0000      1.0000 

    irrep                 13a         14a         15a         16a         17a   
 eigenvalues H         -0.06332     0.25149     0.33905     1.01210     1.06738
            eV          -1.7231      6.8434      9.2261     27.5409     29.0452
 
 beta:  

    irrep                  8a          9a         10a         11a         12a   
 eigenvalues H         -0.77992    -0.74979    -0.56165    -0.55371    -0.47907
            eV         -21.2228    -20.4029    -15.2834    -15.0673    -13.0364
 occupation              1.0000      1.0000      1.0000      1.0000      1.0000 

    irrep                 13a         14a         15a         16a         17a   
 eigenvalues H         -0.06332     0.25149     0.33905     1.01210     1.06738
            eV          -1.7231      6.8434      9.2261     27.5409     29.0452
 

                                             _ _ _ 
  IRREP     alpha occ.     beta occ.      tr(D*D-D)


 a         12.00000000    12.00000000     0.00000000

   -------------------------------------------------

   sum     12.00000000    12.00000000     0.00000000

 <S*S>    -0.00000000

 
 
 
 ==============================================================================
                           electrostatic moments
 ==============================================================================
 
              nuc           elec       ->  total
 ------------------------------------------------------------------------------
                          charge      
 ------------------------------------------------------------------------------
          24.000000     -24.000000       0.000000
 a-b                                     0.000000
 
 ------------------------------------------------------------------------------
                       dipole moment  
 ------------------------------------------------------------------------------
   x       0.000000      -0.000000      -0.000000
   y       0.000000      -0.000000      -0.000000
   z       0.000002      -0.286576      -0.286575
 
   | dipole moment | =     0.2866 a.u. =     0.7284 debye 
 
 ------------------------------------------------------------------------------
                     quadrupole moment
 ------------------------------------------------------------------------------
  xx      71.918518     -84.667800     -12.749282
  yy       0.000000     -10.969573     -10.969573
  zz       9.360476     -21.053966     -11.693490
  xy       0.000000       0.000000       0.000000
  xz       0.000000      -0.000000      -0.000000
  yz       0.000000      -0.000000      -0.000000
 
     1/3  trace=     -11.804115
     anisotropy=       1.550181
 
 ==============================================================================
 


    ------------------------------------------------------------------------
         total  cpu-time :  1 minutes and 50 seconds
         total wall-time :  10.91 seconds
    ------------------------------------------------------------------------


   ****  dscf : all done  ****


    2014-10-30 15:25:32.411 

