[Molden Format]
[Title]
ozone                                                                           
[Atoms] AU
 o     1    8 0.00000000000000E+00 0.00000000000000E+00 -.88319846813756E+00
 o     2    8 0.21201196532809E+01 0.00000000000000E+00 0.44159932855509E+00
 o     3    8 -.21201196532809E+01 0.00000000000000E+00 0.44159932855509E+00
[GTO]
    1 0
 s    8 1.00
 0.11720000000000E+05 0.70964594651845E-03
 0.17590000000000E+04 0.54672722921914E-02
 0.40080000000000E+03 0.27823118610189E-01
 0.11370000000000E+03 0.10474773971146E+00
 0.37030000000000E+02 0.28292084635691E+00
 0.13270000000000E+02 0.44849523869833E+00
 0.50250000000000E+01 0.27081688521277E+00
 0.10130000000000E+01 0.15450291607440E-01
 s    8 1.00
 0.11720000000000E+05 -.31444341168873E-03
 0.17590000000000E+04 -.24821376810179E-02
 0.40080000000000E+03 -.12316355381583E-01
 0.11370000000000E+03 -.50538917343672E-01
 0.37030000000000E+02 -.13938490331632E+00
 0.13270000000000E+02 -.32507749481778E+00
 0.50250000000000E+01 -.22984830758785E+00
 0.10130000000000E+01 0.10953793467883E+01
 s    1 1.00
 0.30230000000000E+00 0.10000000000000E+01
 p    3 1.00
 0.17700000000000E+02 0.62679166281506E-01
 0.38540000000000E+01 0.33353656587936E+00
 0.10460000000000E+01 0.74123964163973E+00
 p    1 1.00
 0.27530000000000E+00 0.10000000000000E+01
 d    1 1.00
 0.11850000000000E+01 0.10000000000000E+01
 
    2 0
 s    8 1.00
 0.11720000000000E+05 0.70964594651845E-03
 0.17590000000000E+04 0.54672722921914E-02
 0.40080000000000E+03 0.27823118610189E-01
 0.11370000000000E+03 0.10474773971146E+00
 0.37030000000000E+02 0.28292084635691E+00
 0.13270000000000E+02 0.44849523869833E+00
 0.50250000000000E+01 0.27081688521277E+00
 0.10130000000000E+01 0.15450291607440E-01
 s    8 1.00
 0.11720000000000E+05 -.31444341168873E-03
 0.17590000000000E+04 -.24821376810179E-02
 0.40080000000000E+03 -.12316355381583E-01
 0.11370000000000E+03 -.50538917343672E-01
 0.37030000000000E+02 -.13938490331632E+00
 0.13270000000000E+02 -.32507749481778E+00
 0.50250000000000E+01 -.22984830758785E+00
 0.10130000000000E+01 0.10953793467883E+01
 s    1 1.00
 0.30230000000000E+00 0.10000000000000E+01
 p    3 1.00
 0.17700000000000E+02 0.62679166281506E-01
 0.38540000000000E+01 0.33353656587936E+00
 0.10460000000000E+01 0.74123964163973E+00
 p    1 1.00
 0.27530000000000E+00 0.10000000000000E+01
 d    1 1.00
 0.11850000000000E+01 0.10000000000000E+01
 
    3 0
 s    8 1.00
 0.11720000000000E+05 0.70964594651845E-03
 0.17590000000000E+04 0.54672722921914E-02
 0.40080000000000E+03 0.27823118610189E-01
 0.11370000000000E+03 0.10474773971146E+00
 0.37030000000000E+02 0.28292084635691E+00
 0.13270000000000E+02 0.44849523869833E+00
 0.50250000000000E+01 0.27081688521277E+00
 0.10130000000000E+01 0.15450291607440E-01
 s    8 1.00
 0.11720000000000E+05 -.31444341168873E-03
 0.17590000000000E+04 -.24821376810179E-02
 0.40080000000000E+03 -.12316355381583E-01
 0.11370000000000E+03 -.50538917343672E-01
 0.37030000000000E+02 -.13938490331632E+00
 0.13270000000000E+02 -.32507749481778E+00
 0.50250000000000E+01 -.22984830758785E+00
 0.10130000000000E+01 0.10953793467883E+01
 s    1 1.00
 0.30230000000000E+00 0.10000000000000E+01
 p    3 1.00
 0.17700000000000E+02 0.62679166281506E-01
 0.38540000000000E+01 0.33353656587936E+00
 0.10460000000000E+01 0.74123964163973E+00
 p    1 1.00
 0.27530000000000E+00 0.10000000000000E+01
 d    1 1.00
 0.11850000000000E+01 0.10000000000000E+01
 
[MO]
 Sym=     1a   
 Ene= -.20903856103269E+02
 Spin= Alpha
 Occup= 1.000000
     1 0.10009162929769E+01
     2 0.77013411929628E-03
     3 -.50992601474477E-02
     4 -.21685047429839E-15
     5 0.16259247708918E-15
     6 0.15414268392596E-02
     7 0.19388997091213E-15
     8 -.47432759368501E-16
     9 -.17625219937745E-02
    10 -.36396883242737E-04
    11 -.43110629854060E-04
    12 0.79507513096797E-04
    13 0.66901689046718E-16
    14 -.15330292385334E-15
    15 0.30230775240129E-15
    16 0.15235516528136E-02
    17 -.17528994514879E-03
    18 0.14584528671848E-02
    19 -.13615994917085E-03
    20 -.11430667448385E-16
    21 -.96320524939927E-04
    22 -.80646334079689E-03
    23 0.31597250275780E-16
    24 -.21111613599640E-03
    25 -.17027069617731E-04
    26 0.57023067691546E-04
    27 -.39995998073815E-04
    28 -.24678986172840E-15
    29 -.69837541633558E-04
    30 0.19697900880882E-17
    31 0.15235516527986E-02
    32 -.17528994514783E-03
    33 0.14584528671841E-02
    34 0.13615994917095E-03
    35 -.45075106416749E-16
    36 -.96320524940378E-04
    37 0.80646334079760E-03
    38 0.34368590550275E-16
    39 -.21111613599663E-03
    40 -.17027069617533E-04
    41 0.57023067691478E-04
    42 -.39995998073944E-04
    43 0.17579990333045E-15
    44 0.69837541633524E-04
    45 -.15932771945089E-15
 Sym=     1a   
 Ene= -.20903856103269E+02
 Spin= Beta
 Occup= 1.000000
     1 0.10009162929769E+01
     2 0.77013411929479E-03
     3 -.50992601474442E-02
     4 -.30807083449708E-15
     5 0.29918864926779E-16
     6 0.15414268392592E-02
     7 0.30307136389625E-15
     8 0.38256547841544E-16
     9 -.17625219937727E-02
    10 -.36396883242474E-04
    11 -.43110629854415E-04
    12 0.79507513096889E-04
    13 -.12549454335160E-16
    14 -.80290891803929E-16
    15 -.85623074605664E-16
    16 0.15235516527981E-02
    17 -.17528994514749E-03
    18 0.14584528671824E-02
    19 -.13615994917091E-03
    20 -.13670446646259E-15
    21 -.96320524939836E-04
    22 -.80646334079553E-03
    23 0.25190237051683E-16
    24 -.21111613599584E-03
    25 -.17027069617906E-04
    26 0.57023067691792E-04
    27 -.39995998073887E-04
    28 -.29768331275580E-16
    29 -.69837541633847E-04
    30 0.83823077739974E-16
    31 0.15235516528212E-02
    32 -.17528994514771E-03
    33 0.14584528671827E-02
    34 0.13615994917033E-03
    35 0.50314781757006E-16
    36 -.96320524940028E-04
    37 0.80646334079607E-03
    38 -.15646485947300E-15
    39 -.21111613599610E-03
    40 -.17027069617869E-04
    41 0.57023067691596E-04
    42 -.39995998073727E-04
    43 -.48035967124987E-16
    44 0.69837541633824E-04
    45 0.10106178474946E-15
 Sym=     2a   
 Ene= -.20716741911703E+02
 Spin= Alpha
 Occup= 1.000000
     1 -.42361150733570E-12
     2 -.53507775750559E-14
     3 0.25458321939564E-12
     4 0.14386083786445E-03
     5 -.55414769658297E-16
     6 0.25700033596688E-13
     7 0.12488051317523E-02
     8 0.98457693029850E-16
     9 0.49659021433703E-13
    10 -.22711982333696E-13
    11 0.22369339990303E-13
    12 0.34264234339326E-15
    13 0.12747733665417E-15
    14 -.10825007358767E-03
    15 0.14909517314747E-15
    16 0.70768043472580E+00
    17 0.43576946720335E-03
    18 -.30192829942778E-02
    19 -.10040740141960E-02
    20 -.51076496286412E-16
    21 -.54069451428886E-03
    22 0.10981751401725E-02
    23 -.56698364780894E-16
    24 0.64607190159899E-03
    25 -.53864495909765E-04
    26 -.22738368085884E-05
    27 0.56138332718354E-04
    28 -.11201863334784E-15
    29 -.13478721160404E-03
    30 -.51859876043797E-17
    31 -.70768043447956E+00
    32 -.43576946717087E-03
    33 0.30192829934900E-02
    34 -.10040740139005E-02
    35 -.65167412182701E-16
    36 0.54069451409468E-03
    37 0.10981751399509E-02
    38 -.15204678516176E-15
    39 -.64607190143769E-03
    40 0.53864495894812E-04
    41 0.22738367964182E-05
    42 -.56138332691230E-04
    43 -.10077550628968E-16
    44 -.13478721156007E-03
    45 -.63637235458179E-16
 Sym=     2a   
 Ene= -.20716741911703E+02
 Spin= Beta
 Occup= 1.000000
     1 -.18829485645080E-12
     2 -.27518978476781E-14
     3 0.12640480907151E-12
     4 0.14386083786510E-03
     5 -.77886360616781E-16
     6 0.12751292606948E-13
     7 0.12488051317520E-02
     8 -.17287483261046E-16
     9 0.25055341835329E-13
    10 -.11230406513486E-13
    11 0.11217383835381E-13
    12 0.13022678104644E-16
    13 0.12153239732454E-15
    14 -.10825007358754E-03
    15 -.76054644527315E-16
    16 0.70768043466370E+00
    17 0.43576946719505E-03
    18 -.30192829940797E-02
    19 -.10040740141212E-02
    20 0.70872008732370E-16
    21 -.54069451423979E-03
    22 0.10981751401167E-02
    23 0.12419157524361E-17
    24 0.64607190155834E-03
    25 -.53864495905987E-04
    26 -.22738368054468E-05
    27 0.56138332711434E-04
    28 0.14949979922056E-15
    29 -.13478721159306E-03
    30 0.11608605440378E-15
    31 -.70768043454167E+00
    32 -.43576946717910E-03
    33 0.30192829936890E-02
    34 -.10040740139746E-02
    35 0.27473981285606E-16
    36 0.54069451414363E-03
    37 0.10981751400066E-02
    38 0.75135969368776E-16
    39 -.64607190147818E-03
    40 0.53864495898996E-04
    41 0.22738367992507E-05
    42 -.56138332698246E-04
    43 0.21726363446768E-16
    44 -.13478721157120E-03
    45 -.98386296496059E-16
 Sym=     3a   
 Ene= -.20716675215808E+02
 Spin= Alpha
 Occup= 1.000000
     1 -.23733425335535E-02
     2 -.33282284299555E-04
     3 0.14721155847344E-02
     4 -.25754128581503E-13
     5 0.56199933172769E-16
     6 0.14859652151572E-03
     7 -.21708141007850E-12
     8 -.95536439254548E-16
     9 0.28985880497391E-03
    10 -.13257844730576E-03
    11 0.12905092321763E-03
    12 0.35275240881295E-05
    13 0.25099591050718E-15
    14 0.18721840130894E-13
    15 -.65180514818270E-17
    16 0.70751139210905E+00
    17 0.96254926621054E-04
    18 -.22699680003024E-02
    19 -.84987090534872E-03
    20 -.64014266913668E-16
    21 -.55787632153745E-03
    22 0.63963500743933E-03
    23 -.15929227565512E-16
    24 0.46464661665130E-03
    25 -.44220552363844E-04
    26 -.34662857377378E-04
    27 0.78883409741222E-04
    28 0.49372225456444E-17
    29 -.12599799267537E-03
    30 -.53411177820754E-16
    31 0.70751139235535E+00
    32 0.96254926773974E-04
    33 -.22699680013523E-02
    34 0.84987090569835E-03
    35 -.23167112541539E-15
    36 -.55787632172556E-03
    37 -.63963500782192E-03
    38 0.20679386604796E-15
    39 0.46464661687576E-03
    40 -.44220552383037E-04
    41 -.34662857377959E-04
    42 0.78883409760996E-04
    43 -.33222535934349E-16
    44 0.12599799272250E-03
    45 0.91685210443000E-16
 Sym=     3a   
 Ene= -.20716675215808E+02
 Spin= Beta
 Occup= 1.000000
     1 -.23733425335582E-02
     2 -.33282284299856E-04
     3 0.14721155847347E-02
     4 -.12752528593095E-13
     5 -.77398080840966E-17
     6 0.14859652151579E-03
     7 -.10643148443370E-12
     8 0.29066724944082E-17
     9 0.28985880497373E-03
    10 -.13257844730559E-03
    11 0.12905092321758E-03
    12 0.35275240880076E-05
    13 -.23038271086976E-15
    14 0.96237042740192E-14
    15 0.11285936843657E-16
    16 0.70751139217117E+00
    17 0.96254926661538E-04
    18 -.22699680005687E-02
    19 -.84987090543721E-03
    20 0.74343206814893E-16
    21 -.55787632158522E-03
    22 0.63963500753616E-03
    23 0.67432650378731E-16
    24 0.46464661670855E-03
    25 -.44220552368688E-04
    26 -.34662857377458E-04
    27 0.78883409746147E-04
    28 0.46684508525702E-16
    29 -.12599799268717E-03
    30 0.11552397551962E-15
    31 0.70751139229323E+00
    32 0.96254926734149E-04
    33 -.22699680010866E-02
    34 0.84987090561011E-03
    35 0.21495133333317E-15
    36 -.55787632167812E-03
    37 -.63963500772419E-03
    38 -.18512128188617E-15
    39 0.46464661681859E-03
    40 -.44220552377944E-04
    41 -.34662857377879E-04
    42 0.78883409755823E-04
    43 0.21607671230689E-16
    44 0.12599799271066E-03
    45 -.29896669897559E-16
 Sym=     4a   
 Ene= -.17065818613960E+01
 Spin= Alpha
 Occup= 1.000000
     1 0.23045413087566E-02
     2 0.39199205410198E+00
     3 0.35366684973338E+00
     4 0.50658585767919E-14
     5 0.10942841687161E-14
     6 0.98264701202710E-01
     7 0.46242284359367E-14
     8 0.79568228070157E-15
     9 0.48930656631421E-01
    10 0.90860039469142E-02
    11 -.94313508335698E-02
    12 0.34534688665553E-03
    13 -.64522507756670E-16
    14 0.46987537121994E-15
    15 0.20296613383598E-15
    16 -.94697071414504E-04
    17 0.19654269182038E+00
    18 0.14305253124310E+00
    19 -.83030260020708E-01
    20 0.10397154797965E-15
    21 -.44613048309023E-01
    22 -.13234457762577E-01
    23 0.14411743531653E-15
    24 -.12305709985117E-01
    25 0.61568154052138E-02
    26 -.48852960179262E-02
    27 -.12715193872876E-02
    28 -.10514005758782E-15
    29 0.78694634247523E-02
    30 0.15691967102894E-15
    31 -.94697071414906E-04
    32 0.19654269182037E+00
    33 0.14305253124309E+00
    34 0.83030260020704E-01
    35 -.52344916377572E-15
    36 -.44613048309020E-01
    37 0.13234457762578E-01
    38 -.10591664332658E-15
    39 -.12305709985117E-01
    40 0.61568154052136E-02
    41 -.48852960179264E-02
    42 -.12715193872873E-02
    43 -.51794898501362E-16
    44 -.78694634247523E-02
    45 0.82608075904465E-16
 Sym=     4a   
 Ene= -.17065818613960E+01
 Spin= Beta
 Occup= 1.000000
     1 0.23045413087573E-02
     2 0.39199205410198E+00
     3 0.35366684973338E+00
     4 0.19202755721935E-14
     5 -.26882712073575E-16
     6 0.98264701202710E-01
     7 0.52999830626849E-14
     8 0.52197718729461E-15
     9 0.48930656631420E-01
    10 0.90860039469142E-02
    11 -.94313508335698E-02
    12 0.34534688665569E-03
    13 0.38396808451874E-16
    14 0.35191119643794E-15
    15 -.47719818553282E-16
    16 -.94697071414658E-04
    17 0.19654269182038E+00
    18 0.14305253124309E+00
    19 -.83030260020709E-01
    20 -.11418276053358E-14
    21 -.44613048309024E-01
    22 -.13234457762578E-01
    23 -.81157867218202E-15
    24 -.12305709985117E-01
    25 0.61568154052142E-02
    26 -.48852960179268E-02
    27 -.12715193872873E-02
    28 -.85281087719366E-16
    29 0.78694634247523E-02
    30 0.17093842691830E-15
    31 -.94697071415130E-04
    32 0.19654269182037E+00
    33 0.14305253124309E+00
    34 0.83030260020706E-01
    35 0.11510093024297E-14
    36 -.44613048309021E-01
    37 0.13234457762580E-01
    38 -.18871574107318E-15
    39 -.12305709985120E-01
    40 0.61568154052132E-02
    41 -.48852960179258E-02
    42 -.12715193872874E-02
    43 0.22116312791337E-16
    44 -.78694634247523E-02
    45 -.70136917596171E-16
 Sym=     5a   
 Ene= -.14060798897283E+01
 Spin= Beta
 Occup= 1.000000
     1 -.35915498674401E-14
     2 -.83602460083232E-14
     3 0.20502188909028E-13
     4 0.25767636566158E+00
     5 0.34686928056505E-15
     6 -.68660241718857E-15
     7 0.79709834261818E-01
     8 0.12483016942420E-15
     9 0.83686808913252E-14
    10 0.78436022966381E-15
    11 -.49994999555229E-15
    12 -.28441023411151E-15
    13 0.48279121353542E-16
    14 0.17851937584312E-01
    15 0.87923536316433E-16
    16 -.96701729694097E-03
    17 0.32251520678624E+00
    18 0.33232349718385E+00
    19 -.49383419923550E-01
    20 -.52654539234203E-15
    21 -.47192763725832E-01
    22 -.28020115995445E-01
    23 -.21114156615262E-15
    24 -.19009666051558E-01
    25 0.37575027836576E-02
    26 -.38882317460704E-02
    27 0.13072896241272E-03
    28 0.10584163768926E-15
    29 0.65034658113665E-02
    30 0.71131025096070E-16
    31 0.96701729694384E-03
    32 -.32251520678624E+00
    33 -.33232349718387E+00
    34 -.49383419923552E-01
    35 -.44639835274297E-15
    36 0.47192763725832E-01
    37 -.28020115995460E-01
    38 -.20300767719499E-15
    39 0.19009666051564E-01
    40 -.37575027836582E-02
    41 0.38882317460702E-02
    42 -.13072896241204E-03
    43 -.12916862626177E-15
    44 0.65034658113671E-02
    45 0.22619687163989E-16
 Sym=     5a   
 Ene= -.14060798897283E+01
 Spin= Alpha
 Occup= 1.000000
     1 -.40930665464861E-14
     2 -.21175311824512E-13
     3 0.10793941223559E-13
     4 0.25767636566157E+00
     5 -.33397314331664E-15
     6 -.29073112152182E-14
     7 0.79709834261821E-01
     8 0.19866923073897E-15
     9 0.92413885700614E-14
    10 0.85255814708767E-15
    11 -.62000643998863E-15
    12 -.23255170709904E-15
    13 0.10963741240071E-15
    14 0.17851937584313E-01
    15 0.10179019445113E-15
    16 -.96701729693897E-03
    17 0.32251520678625E+00
    18 0.33232349718385E+00
    19 -.49383419923548E-01
    20 -.44865926552253E-16
    21 -.47192763725832E-01
    22 -.28020115995443E-01
    23 -.60153230656947E-15
    24 -.19009666051557E-01
    25 0.37575027836569E-02
    26 -.38882317460692E-02
    27 0.13072896241226E-03
    28 0.43465681546397E-17
    29 0.65034658113660E-02
    30 0.18004547491838E-15
    31 0.96701729694678E-03
    32 -.32251520678623E+00
    33 -.33232349718387E+00
    34 -.49383419923554E-01
    35 0.35140469343699E-16
    36 0.47192763725833E-01
    37 -.28020115995462E-01
    38 -.49881204069546E-15
    39 0.19009666051564E-01
    40 -.37575027836588E-02
    41 0.38882317460710E-02
    42 -.13072896241227E-03
    43 0.92799360103274E-16
    44 0.65034658113677E-02
    45 -.17884721956884E-15
 Sym=     6a   
 Ene= -.11090387959430E+01
 Spin= Beta
 Occup= 1.000000
     1 -.11908391481886E-01
     2 -.32992596890090E+00
     3 -.40613266570309E+00
     4 0.93312958353894E-14
     5 -.17855937131635E-14
     6 0.16740807930241E+00
     7 0.33941253973090E-13
     8 -.87426313330535E-15
     9 0.66374026760536E-01
    10 0.47708200290694E-04
    11 -.23181493189274E-02
    12 0.22704411186367E-02
    13 -.31373812145516E-16
    14 0.47038129461763E-15
    15 0.80636901026730E-16
    16 0.13884721653911E-02
    17 0.28469684932564E+00
    18 0.36449166903661E+00
    19 0.61962612412536E-01
    20 0.23970157016248E-15
    21 0.72173381218377E-01
    22 0.15986724321317E-01
    23 0.53442487666242E-16
    24 0.26643235042013E-01
    25 -.71652162429586E-03
    26 0.14344487839726E-02
    27 -.71792715967678E-03
    28 0.14046279572689E-15
    29 -.46940206897901E-02
    30 -.11905173658382E-15
    31 0.13884721653855E-02
    32 0.28469684932563E+00
    33 0.36449166903665E+00
    34 -.61962612412524E-01
    35 -.12943414525350E-14
    36 0.72173381218367E-01
    37 -.15986724321287E-01
    38 -.76381240261804E-15
    39 0.26643235041986E-01
    40 -.71652162429583E-03
    41 0.14344487839731E-02
    42 -.71792715967724E-03
    43 0.40029214741640E-16
    44 0.46940206897896E-02
    45 -.64858391832823E-16
 Sym=     6a   
 Ene= -.11090387959430E+01
 Spin= Alpha
 Occup= 1.000000
     1 -.11908391481886E-01
     2 -.32992596890090E+00
     3 -.40613266570310E+00
     4 -.95786704192144E-14
     5 0.11877157866839E-14
     6 0.16740807930241E+00
     7 0.19120324287471E-13
     8 -.67424089881809E-16
     9 0.66374026760537E-01
    10 0.47708200290573E-04
    11 -.23181493189272E-02
    12 0.22704411186367E-02
    13 -.38979770039093E-16
    14 0.51069553900569E-15
    15 -.54095114983049E-16
    16 0.13884721653913E-02
    17 0.28469684932564E+00
    18 0.36449166903661E+00
    19 0.61962612412532E-01
    20 0.58616923194968E-16
    21 0.72173381218376E-01
    22 0.15986724321310E-01
    23 0.11525368365087E-15
    24 0.26643235042008E-01
    25 -.71652162429638E-03
    26 0.14344487839736E-02
    27 -.71792715967724E-03
    28 -.93728095672034E-16
    29 -.46940206897908E-02
    30 0.91856184489111E-16
    31 0.13884721653843E-02
    32 0.28469684932563E+00
    33 0.36449166903665E+00
    34 -.61962612412526E-01
    35 0.47549420743709E-15
    36 0.72173381218369E-01
    37 -.15986724321292E-01
    38 0.37045727696841E-15
    39 0.26643235041989E-01
    40 -.71652162429531E-03
    41 0.14344487839721E-02
    42 -.71792715967678E-03
    43 -.55971963240225E-16
    44 0.46940206897893E-02
    45 0.23661467655354E-15
 Sym=     7a   
 Ene= -.80731534624267E+00
 Spin= Beta
 Occup= 1.000000
     1 -.32749530869481E-02
     2 -.36529113654919E-01
     3 -.31891662938603E-01
     4 0.21842761118641E-13
     5 -.33861807569995E-13
     6 0.50268730375248E+00
     7 0.10569180130567E-13
     8 -.21899152623252E-13
     9 0.30782242200707E+00
    10 -.48834239826458E-02
    11 -.84883098115766E-02
    12 0.13371733794222E-01
    13 0.60537908003585E-16
    14 0.10835687758419E-14
    15 -.72912339857477E-15
    16 0.34771151337240E-02
    17 -.90992618631848E-01
    18 -.20033422821873E+00
    19 -.26108519599287E+00
    20 -.16903144746167E-13
    21 0.99089045753600E-01
    22 -.12196346052900E+00
    23 -.10408340948592E-13
    24 0.66752202307239E-01
    25 0.11515483904861E-01
    26 -.42296326451895E-02
    27 -.72858512596711E-02
    28 0.77218989017510E-15
    29 0.29302479332404E-02
    30 0.53081787947898E-15
    31 0.34771151337250E-02
    32 -.90992618631831E-01
    33 -.20033422821871E+00
    34 0.26108519599284E+00
    35 -.16764372430290E-13
    36 0.99089045753612E-01
    37 0.12196346052898E+00
    38 -.10769168063956E-13
    39 0.66752202307244E-01
    40 0.11515483904859E-01
    41 -.42296326451888E-02
    42 -.72858512596705E-02
    43 -.86433143059140E-15
    44 -.29302479332390E-02
    45 0.55685766098517E-15
 Sym=     7a   
 Ene= -.80731534624267E+00
 Spin= Alpha
 Occup= 1.000000
     1 -.32749530869478E-02
     2 -.36529113654918E-01
     3 -.31891662938604E-01
     4 0.27894746516995E-13
     5 0.22965144183656E-13
     6 0.50268730375248E+00
     7 0.83020477428461E-14
     8 0.14314058411814E-13
     9 0.30782242200707E+00
    10 -.48834239826457E-02
    11 -.84883098115768E-02
    12 0.13371733794222E-01
    13 -.14330789579614E-15
    14 0.13549508383449E-14
    15 0.50578183786189E-15
    16 0.34771151337239E-02
    17 -.90992618631848E-01
    18 -.20033422821873E+00
    19 -.26108519599288E+00
    20 0.12176042324052E-13
    21 0.99089045753600E-01
    22 -.12196346052901E+00
    23 0.71392978283104E-14
    24 0.66752202307237E-01
    25 0.11515483904861E-01
    26 -.42296326451900E-02
    27 -.72858512596711E-02
    28 -.64304051664328E-15
    29 0.29302479332406E-02
    30 -.41762701766092E-15
    31 0.34771151337259E-02
    32 -.90992618631829E-01
    33 -.20033422821871E+00
    34 0.26108519599283E+00
    35 0.10054384439792E-13
    36 0.99089045753612E-01
    37 0.12196346052898E+00
    38 0.62252973470228E-14
    39 0.66752202307246E-01
    40 0.11515483904859E-01
    41 -.42296326451888E-02
    42 -.72858512596705E-02
    43 0.58923646969589E-15
    44 -.29302479332387E-02
    45 -.23954732401332E-15
 Sym=     8a   
 Ene= -.77991821245535E+00
 Spin= Beta
 Occup= 1.000000
     1 0.18102642711874E-14
     2 -.39160480001911E-16
     3 -.17682258585264E-13
     4 0.44624483424395E+00
     5 -.15461907323343E-14
     6 -.20274713132242E-13
     7 0.23212291606619E+00
     8 -.96230393437736E-15
     9 -.15855253682381E-13
    10 0.47482375864011E-15
    11 0.44656231380652E-15
    12 -.92138607244663E-15
    13 0.10245759778790E-17
    14 0.14599340857953E-01
    15 -.22538086471157E-16
    16 -.72864956018582E-03
    17 -.15116222972533E+00
    18 -.26686239962473E+00
    19 -.18471113396460E+00
    20 -.98314830617063E-15
    21 -.25173094513315E+00
    22 -.99099384966462E-01
    23 -.71328288337158E-15
    24 -.13085597184340E+00
    25 0.57704984601935E-02
    26 -.73227324227175E-02
    27 0.15522339625239E-02
    28 -.10356339057367E-16
    29 0.13462870271087E-01
    30 0.13571701392124E-15
    31 0.72864956018428E-03
    32 0.15116222972534E+00
    33 0.26686239962476E+00
    34 -.18471113396463E+00
    35 -.41978967348907E-14
    36 0.25173094513312E+00
    37 -.99099384966466E-01
    38 -.26673239294022E-14
    39 0.13085597184338E+00
    40 -.57704984601948E-02
    41 0.73227324227182E-02
    42 -.15522339625235E-02
    43 -.88000998709040E-16
    44 0.13462870271087E-01
    45 0.19760807977519E-15
 Sym=     8a   
 Ene= -.77991821245535E+00
 Spin= Alpha
 Occup= 1.000000
     1 0.22034171788937E-14
     2 -.13131361494103E-14
     3 -.23969165329483E-13
     4 0.44624483424395E+00
     5 0.32537360797263E-14
     6 -.22470392625153E-13
     7 0.23212291606619E+00
     8 0.22369303454662E-14
     9 -.19997716005723E-13
    10 0.59244761833587E-15
    11 0.46216145162114E-15
    12 -.10546090699570E-14
    13 -.59538243071561E-16
    14 0.14599340857953E-01
    15 0.15208967927572E-15
    16 -.72864956018580E-03
    17 -.15116222972532E+00
    18 -.26686239962472E+00
    19 -.18471113396460E+00
    20 0.98580201033813E-16
    21 -.25173094513315E+00
    22 -.99099384966464E-01
    23 0.18881427457022E-15
    24 -.13085597184340E+00
    25 0.57704984601940E-02
    26 -.73227324227180E-02
    27 0.15522339625240E-02
    28 0.14758012661474E-16
    29 0.13462870271087E-01
    30 -.11448640528696E-15
    31 0.72864956018276E-03
    32 0.15116222972534E+00
    33 0.26686239962477E+00
    34 -.18471113396463E+00
    35 0.56903702088328E-14
    36 0.25173094513312E+00
    37 -.99099384966468E-01
    38 0.34958152453522E-14
    39 0.13085597184337E+00
    40 -.57704984601948E-02
    41 0.73227324227182E-02
    42 -.15522339625233E-02
    43 0.61437728001509E-16
    44 0.13462870271087E-01
    45 0.43959021437560E-16
 Sym=     9a   
 Ene= -.74978690127513E+00
 Spin= Alpha
 Occup= 1.000000
     1 0.14639439833986E-15
     2 0.14862243380431E-14
     3 0.12286721119692E-14
     4 -.41339146529215E-14
     5 0.48995410057267E+00
     6 -.19906819248572E-13
     7 -.29379170486508E-14
     8 0.32899802639210E+00
     9 -.13621048733370E-13
    10 0.43052228533202E-15
    11 0.57881403747372E-15
    12 -.10093363228058E-14
    13 0.39387183320334E-15
    14 -.13207359763805E-15
    15 0.15415054823534E-01
    16 -.38083278934911E-15
    17 0.41091262337201E-14
    18 0.10990774262920E-13
    19 0.12557663242596E-13
    20 0.26330696485444E+00
    21 -.32979261682664E-14
    22 0.57271895559374E-14
    23 0.16733619090054E+00
    24 -.32200804522819E-14
    25 -.66961704141788E-15
    26 0.25618319366749E-15
    27 0.41343384775038E-15
    28 -.11541611060490E-01
    29 -.22659911864285E-15
    30 -.70749225102894E-02
    31 -.86248282821222E-16
    32 0.18704655879720E-14
    33 0.47691885163292E-14
    34 -.10657273674664E-13
    35 0.26330696485441E+00
    36 -.72949458973515E-14
    37 -.51087606367517E-14
    38 0.16733619090051E+00
    39 -.46815849807924E-14
    40 -.39237936592348E-15
    41 0.33576562591758E-16
    42 0.35880280333172E-15
    43 0.11541611060488E-01
    44 0.14068550252758E-16
    45 -.70749225102888E-02
 Sym=     9a   
 Ene= -.74978690127513E+00
 Spin= Beta
 Occup= 1.000000
     1 -.81748843805407E-16
     2 -.30669911055270E-14
     3 -.43610948186057E-14
     4 0.36260135277757E-14
     5 0.48995410057268E+00
     6 0.33195668436292E-13
     7 0.16690804342678E-14
     8 0.32899802639210E+00
     9 0.20844437287337E-13
    10 -.43244215269910E-15
    11 -.52503301822936E-15
    12 0.95747517092847E-15
    13 0.94756468690641E-16
    14 0.15606488737047E-15
    15 0.15415054823534E-01
    16 -.58546917314217E-17
    17 -.63768434976907E-14
    18 -.13739009929736E-13
    19 -.16264767310759E-13
    20 0.26330696485441E+00
    21 0.40731307215935E-14
    22 -.78756445809347E-14
    23 0.16733619090052E+00
    24 0.28380076066981E-14
    25 0.97365183286506E-15
    26 -.37422830796894E-15
    27 -.59942352489612E-15
    28 -.11541611060489E-01
    29 0.23185721973843E-15
    30 -.70749225102888E-02
    31 0.20079424234432E-15
    32 -.43437475838459E-14
    33 -.10116907311897E-13
    34 0.17180701306074E-13
    35 0.26330696485443E+00
    36 0.72303274478713E-14
    37 0.80560558224363E-14
    38 0.16733619090053E+00
    39 0.49266146717741E-14
    40 0.77455025264277E-15
    41 -.24373242775563E-15
    42 -.53081782488713E-15
    43 0.11541611060489E-01
    44 -.16825923505856E-15
    45 -.70749225102888E-02
 Sym=    10a   
 Ene= -.56164887904533E+00
 Spin= Beta
 Occup= 1.000000
     1 0.31765310502177E-14
     2 -.46929007908436E-13
     3 -.13586624883354E-12
     4 -.11424892032462E+00
     5 -.34990853569670E-14
     6 0.27122438997570E-12
     7 -.27351109613531E-01
     8 -.26667681784245E-14
     9 0.17290059979945E-12
    10 0.12672298408625E-13
    11 -.61698769045844E-14
    12 -.65024215040402E-14
    13 0.21901767030791E-15
    14 -.15038433678915E-01
    15 -.55095935859493E-16
    16 0.24875282830761E-03
    17 0.12156829149857E-01
    18 0.18860358902842E-01
    19 0.34974641603261E+00
    20 0.10645780613700E-13
    21 -.34357277621282E+00
    22 0.24995152603148E+00
    23 0.76689772406356E-14
    24 -.23711756702344E+00
    25 -.87958612774323E-02
    26 0.26447290806707E-02
    27 0.61511321967617E-02
    28 -.12660792238961E-15
    29 -.20477084524212E-02
    30 -.11573488930905E-15
    31 -.24875282830284E-03
    32 -.12156829149869E-01
    33 -.18860358902924E-01
    34 0.34974641603248E+00
    35 -.70549582074980E-14
    36 0.34357277621213E+00
    37 0.24995152603136E+00
    38 -.53011140325689E-14
    39 0.23711756702296E+00
    40 0.87958612774346E-02
    41 -.26447290806764E-02
    42 -.61511321967582E-02
    43 -.23760831347810E-15
    44 -.20477084524332E-02
    45 0.25342226003120E-15
 Sym=    10a   
 Ene= -.56164887904533E+00
 Spin= Alpha
 Occup= 1.000000
     1 0.19939490375867E-14
     2 -.62433604223602E-13
     3 -.16035414725223E-12
     4 -.11424892032461E+00
     5 0.16639222456736E-14
     6 0.34270821103082E-12
     7 -.27351109613521E-01
     8 0.12496588388510E-14
     9 0.22384419848948E-12
    10 0.16249729373504E-13
    11 -.80424927968421E-14
    12 -.82072365766619E-14
    13 -.58532229242229E-15
    14 -.15038433678915E-01
    15 -.32463809175538E-16
    16 0.24875282830941E-03
    17 0.12156829149856E-01
    18 0.18860358902818E-01
    19 0.34974641603262E+00
    20 -.15018769186054E-13
    21 -.34357277621291E+00
    22 0.24995152603150E+00
    23 -.10981544947092E-13
    24 -.23711756702350E+00
    25 -.87958612774323E-02
    26 0.26447290806707E-02
    27 0.61511321967617E-02
    28 0.16524182195710E-15
    29 -.20477084524201E-02
    30 0.78413670220577E-16
    31 -.24875282830163E-03
    32 -.12156829149869E-01
    33 -.18860358902933E-01
    34 0.34974641603246E+00
    35 0.13287794093116E-13
    36 0.34357277621204E+00
    37 0.24995152603135E+00
    38 0.96461581960133E-14
    39 0.23711756702289E+00
    40 0.87958612774348E-02
    41 -.26447290806772E-02