[Molden Format]
[Title]
ozone                                                                           
[Atoms] AU
 o     1    8 0.00000000000000E+00 0.00000000000000E+00 -.88319846813756E+00
 o     2    8 0.21201196532809E+01 0.00000000000000E+00 0.44159932855509E+00
 o     3    8 -.21201196532809E+01 0.00000000000000E+00 0.44159932855509E+00
[GTO]
    1 0
 s    8 1.00
 0.15330000000000E+05 0.52019830712555E-03
 0.22990000000000E+04 0.40233447808982E-02
 0.52240000000000E+03 0.20729083329021E-01
 0.14730000000000E+03 0.81082327079741E-01
 0.47550000000000E+02 0.23622635211786E+00
 0.16760000000000E+02 0.44351820942048E+00
 0.62070000000000E+01 0.35867058868857E+00
 0.68820000000000E+00 -.83497972368145E-02
 s    8 1.00
 0.15330000000000E+05 -.19723601167594E-03
 0.22990000000000E+04 -.15350106995649E-02
 0.52240000000000E+03 -.79511839141710E-02
 0.14730000000000E+03 -.32113452892351E-01
 0.47550000000000E+02 -.10026964304879E+00
 0.16760000000000E+02 -.23404711183769E+00
 0.62070000000000E+01 -.30141092775591E+00
 0.68820000000000E+00 0.10349196495085E+01
 s    1 1.00
 0.17520000000000E+01 0.10000000000000E+01
 s    1 1.00
 0.23840000000000E+00 0.10000000000000E+01
 p    3 1.00
 0.34460000000000E+02 0.41163489568397E-01
 0.77490000000000E+01 0.25776283585835E+00
 0.22800000000000E+01 0.80241927442683E+00
 p    1 1.00
 0.71560000000000E+00 0.10000000000000E+01
 p    1 1.00
 0.21400000000000E+00 0.10000000000000E+01
 d    1 1.00
 0.23140000000000E+01 0.10000000000000E+01
 d    1 1.00
 0.64500000000000E+00 0.10000000000000E+01
 f    1 1.00
 0.14280000000000E+01 0.10000000000000E+01
 
    2 0
 s    8 1.00
 0.15330000000000E+05 0.52019830712555E-03
 0.22990000000000E+04 0.40233447808982E-02
 0.52240000000000E+03 0.20729083329021E-01
 0.14730000000000E+03 0.81082327079741E-01
 0.47550000000000E+02 0.23622635211786E+00
 0.16760000000000E+02 0.44351820942048E+00
 0.62070000000000E+01 0.35867058868857E+00
 0.68820000000000E+00 -.83497972368145E-02
 s    8 1.00
 0.15330000000000E+05 -.19723601167594E-03
 0.22990000000000E+04 -.15350106995649E-02
 0.52240000000000E+03 -.79511839141710E-02
 0.14730000000000E+03 -.32113452892351E-01
 0.47550000000000E+02 -.10026964304879E+00
 0.16760000000000E+02 -.23404711183769E+00
 0.62070000000000E+01 -.30141092775591E+00
 0.68820000000000E+00 0.10349196495085E+01
 s    1 1.00
 0.17520000000000E+01 0.10000000000000E+01
 s    1 1.00
 0.23840000000000E+00 0.10000000000000E+01
 p    3 1.00
 0.34460000000000E+02 0.41163489568397E-01
 0.77490000000000E+01 0.25776283585835E+00
 0.22800000000000E+01 0.80241927442683E+00
 p    1 1.00
 0.71560000000000E+00 0.10000000000000E+01
 p    1 1.00
 0.21400000000000E+00 0.10000000000000E+01
 d    1 1.00
 0.23140000000000E+01 0.10000000000000E+01
 d    1 1.00
 0.64500000000000E+00 0.10000000000000E+01
 f    1 1.00
 0.14280000000000E+01 0.10000000000000E+01
 
    3 0
 s    8 1.00
 0.15330000000000E+05 0.52019830712555E-03
 0.22990000000000E+04 0.40233447808982E-02
 0.52240000000000E+03 0.20729083329021E-01
 0.14730000000000E+03 0.81082327079741E-01
 0.47550000000000E+02 0.23622635211786E+00
 0.16760000000000E+02 0.44351820942048E+00
 0.62070000000000E+01 0.35867058868857E+00
 0.68820000000000E+00 -.83497972368145E-02
 s    8 1.00
 0.15330000000000E+05 -.19723601167594E-03
 0.22990000000000E+04 -.15350106995649E-02
 0.52240000000000E+03 -.79511839141710E-02
 0.14730000000000E+03 -.32113452892351E-01
 0.47550000000000E+02 -.10026964304879E+00
 0.16760000000000E+02 -.23404711183769E+00
 0.62070000000000E+01 -.30141092775591E+00
 0.68820000000000E+00 0.10349196495085E+01
 s    1 1.00
 0.17520000000000E+01 0.10000000000000E+01
 s    1 1.00
 0.23840000000000E+00 0.10000000000000E+01
 p    3 1.00
 0.34460000000000E+02 0.41163489568397E-01
 0.77490000000000E+01 0.25776283585835E+00
 0.22800000000000E+01 0.80241927442683E+00
 p    1 1.00
 0.71560000000000E+00 0.10000000000000E+01
 p    1 1.00
 0.21400000000000E+00 0.10000000000000E+01
 d    1 1.00
 0.23140000000000E+01 0.10000000000000E+01
 d    1 1.00
 0.64500000000000E+00 0.10000000000000E+01
 f    1 1.00
 0.14280000000000E+01 0.10000000000000E+01
 
[MO]
 Sym=     1a   
 Ene= -.20913111114003E+02
 Spin= Beta
 Occup= 1.000000
     1 0.97624965266744E+00
     2 -.88207235170252E-03
     3 0.42685875137251E-01
     4 0.23490191694059E-02
     5 -.15956902686846E-15
     6 0.31675694557463E-15
     7 0.20426976025787E-02
     8 0.10412141964334E-14
     9 0.18629992900626E-15
    10 -.16543483708218E-02
    11 0.30812929744452E-15
    12 0.51120446155646E-15
    13 0.66685446188440E-03
    14 0.40204899354331E-04
    15 -.10057013141412E-03
    16 0.60365232059789E-04
    17 0.72981064966342E-18
    18 0.97885978600572E-16
    19 0.68894153534751E-16
    20 -.32829175160377E-03
    21 0.20357828063358E-03
    22 0.12471347097019E-03
    23 -.80347736375872E-16
    24 0.19517839947162E-15
    25 0.32497231846273E-16
    26 0.41507062831648E-16
    27 -.58372594118122E-17
    28 0.21748480083220E-04
    29 -.63785452494376E-16
    30 0.13156869124672E-16
    31 -.55058543468333E-04
    32 0.80978840716239E-17
    33 -.53253638164049E-17
    34 0.25879895544305E-04
    35 0.35154142692815E-16
    36 0.18863664817741E-02
    37 0.70433470381692E-03
    38 -.24980941832900E-03
    39 -.22171796470907E-03
    40 0.47430024844871E-04
    41 0.19347840067571E-15
    42 0.22229368358465E-04
    43 -.74243404504370E-03
    44 -.15004814486659E-15
    45 -.47317704344959E-03
    46 0.10635165521331E-03
    47 -.15873100534903E-15
    48 -.88217648953665E-04
    49 0.26570498247197E-04
    50 -.15391876807879E-04
    51 -.11178621439317E-04
    52 -.13924463713209E-15
    53 0.35033028628414E-04
    54 0.16627754775252E-15
    55 0.17247979121750E-03
    56 -.16564613414526E-03
    57 -.68336570722394E-05
    58 0.10519701125793E-15
    59 0.26299878919395E-03
    60 -.22255545028261E-16
    61 -.13970245577872E-04
    62 0.88391527241567E-18
    63 0.17961127301297E-04
    64 0.22853574890888E-04
    65 -.26107078036765E-16
    66 -.36487726752962E-04
    67 -.41105236261953E-05
    68 0.24921181255482E-16
    69 0.12390345794025E-04
    70 -.31895176740175E-16
    71 0.18863664818017E-02
    72 0.70433470381775E-03
    73 -.24980941832823E-03
    74 -.22171796470907E-03
    75 -.47430024845248E-04
    76 -.72324551132094E-16
    77 0.22229368358212E-04
    78 0.74243404504379E-03
    79 -.26377628320062E-15
    80 -.47317704345076E-03
    81 -.10635165521280E-03
    82 -.28086961521152E-15
    83 -.88217648953761E-04
    84 0.26570498247256E-04
    85 -.15391876807938E-04
    86 -.11178621439318E-04
    87 -.52453916239021E-17
    88 -.35033028628143E-04
    89 -.10712826966762E-15
    90 0.17247979121774E-03
    91 -.16564613414554E-03
    92 -.68336570722071E-05
    93 -.55166616236533E-16
    94 -.26299878919454E-03
    95 0.15194603754211E-15
    96 0.13970245577972E-04
    97 0.25227776388046E-16
    98 0.17961127301271E-04
    99 -.22853574891149E-04
   100 -.31598452384894E-16
   101 -.36487726752956E-04
   102 0.41105236263223E-05
   103 -.22481613700067E-17
   104 0.12390345794054E-04
   105 0.56293677659337E-16
 Sym=     1a   
 Ene= -.20913111114002E+02
 Spin= Alpha
 Occup= 1.000000
     1 0.97624965266743E+00
     2 -.88207235171008E-03
     3 0.42685875137259E-01
     4 0.23490191693872E-02
     5 0.44973365719512E-15
     6 0.51118713147498E-15
     7 0.20426976025790E-02
     8 -.25119450069108E-15
     9 -.69955161579402E-16
    10 -.16543483708274E-02
    11 -.85295054820449E-16
    12 -.33379324175053E-15
    13 0.66685446188067E-03
    14 0.40204899354474E-04
    15 -.10057013141433E-03
    16 0.60365232059852E-04
    17 0.35830821981889E-16
    18 -.26604763770083E-15
    19 0.31083225604617E-16
    20 -.32829175160608E-03
    21 0.20357828063526E-03
    22 0.12471347097081E-03
    23 -.23049932075399E-15
    24 0.72239077718212E-15
    25 -.15982717642810E-16
    26 -.89950521759777E-16
    27 0.19866988110128E-16
    28 0.21748480083310E-04
    29 0.42858340078226E-17
    30 -.54139182075639E-16
    31 -.55058543468619E-04
    32 0.11639545475204E-15
    33 0.27484820522183E-16
    34 0.25879895544471E-04
    35 0.13614150918800E-16
    36 0.18863664818449E-02
    37 0.70433470381548E-03
    38 -.24980941832686E-03
    39 -.22171796469716E-03
    40 0.47430024845877E-04
    41 0.26052063179308E-16
    42 0.22229368358754E-04
    43 -.74243404504663E-03
    44 -.36638403356983E-15
    45 -.47317704345248E-03
    46 0.10635165520750E-03
    47 0.61754784404135E-16
    48 -.88217648958017E-04
    49 0.26570498246995E-04
    50 -.15391876807760E-04
    51 -.11178621439236E-04
    52 0.96211094497148E-16
    53 0.35033028627656E-04
    54 0.44690862766586E-17
    55 0.17247979121949E-03
    56 -.16564613414715E-03
    57 -.68336570723370E-05
    58 -.26601905984612E-15
    59 0.26299878919645E-03
    60 -.10698578898560E-15
    61 -.13970245577967E-04
    62 -.56744630512118E-16
    63 0.17961127301305E-04
    64 0.22853574891342E-04
    65 0.17545935542302E-16
    66 -.36487726753164E-04
    67 -.41105236265225E-05
    68 0.58584975167621E-16
    69 0.12390345794217E-04
    70 0.53444512438992E-16
    71 0.18863664817643E-02
    72 0.70433470381907E-03
    73 -.24980941833210E-03
    74 -.22171796469940E-03
    75 -.47430024845314E-04
    76 0.12653843030316E-15
    77 0.22229368359112E-04
    78 0.74243404504693E-03
    79 0.11037127833009E-15
    80 -.47317704345208E-03
    81 -.10635165520769E-03
    82 0.48082289524157E-15
    83 -.88217648957097E-04
    84 0.26570498246998E-04
    85 -.15391876807954E-04
    86 -.11178621439044E-04
    87 0.70561996478761E-17
    88 -.35033028628118E-04
    89 -.35800519209380E-16
    90 0.17247979121977E-03
    91 -.16564613414682E-03
    92 -.68336570729466E-05
    93 0.42862871735932E-16
    94 -.26299878919605E-03
    95 0.15028827527728E-16
    96 0.13970245578009E-04
    97 0.17632835167671E-16
    98 0.17961127301334E-04
    99 -.22853574891228E-04
   100 -.40015106013758E-17
   101 -.36487726753114E-04
   102 0.41105236263514E-05
   103 -.19655420241201E-16
   104 0.12390345794128E-04
   105 -.92150641762211E-16
 Sym=     2a   
 Ene= -.20714970102515E+02
 Spin= Beta
 Occup= 1.000000
     1 0.68583088476661E-12
     2 -.45734224606454E-12
     3 0.29223988765328E-12
     4 -.63739908591391E-12
     5 -.18484033899808E-03
     6 0.10029795446361E-15
     7 0.41808410960274E-13
     8 0.15977416683102E-02
     9 -.45578712290973E-15
    10 -.44507031390181E-12
    11 -.20068144746714E-03
    12 0.21429234122113E-15
    13 -.25604285288902E-12
    14 -.12278438061260E-13
    15 0.50718250196934E-14
    16 0.72066130415661E-14
    17 -.72835349084547E-16
    18 0.50389222959351E-04
    19 -.11861579416380E-15
    20 -.18100660940731E-12
    21 0.16972012472247E-12
    22 0.11286484684849E-13
    23 -.65113964109419E-16
    24 0.54616788371639E-03
    25 -.14023780348057E-15
    26 0.17591935111617E-04
    27 0.89583522403206E-17
    28 0.15425245074959E-13
    29 -.45917330731049E-04
    30 -.43594977651101E-16
    31 -.34000506348643E-13
    32 0.22315273071845E-04
    33 0.31576086905654E-16
    34 0.13305368414322E-13
    35 0.46254768099350E-17
    36 0.69020333753364E+00
    37 -.63669723596810E-03
    38 0.30338426015127E-01
    39 0.19071195177976E-02
    40 -.12565637276741E-02
    41 -.12522885660959E-15
    42 -.73381569646908E-03
    43 0.11899961784959E-02
    44 0.17247364569136E-15
    45 0.67347274747402E-03
    46 -.45177673882075E-03
    47 0.38601818249451E-16
    48 -.17601978914628E-03
    49 -.14208215661675E-04
    50 -.30666073782703E-04
    51 0.44874289444378E-04
    52 0.39926586741204E-15
    53 -.40866257140605E-04
    54 -.79673805033385E-17
    55 -.16760963092271E-03
    56 0.10005614583515E-03
    57 0.67553485087566E-04
    58 -.33499127131702E-15
    59 -.28774399925391E-03
    60 -.58251570625683E-16
    61 0.96203527436565E-05
    62 0.58039320715717E-17
    63 -.21379032138663E-04
    64 -.22140356904104E-04
    65 0.35627018237083E-16
    66 0.42888369413225E-04
    67 0.92332992826988E-05
    68 -.43413810226378E-16
    69 -.14205387920103E-04
    70 0.74101670130314E-16
    71 -.69020333811786E+00
    72 0.63669723613727E-03
    73 -.30338426040752E-01
    74 -.19071195183775E-02
    75 -.12565637287427E-02
    76 -.28749867886095E-15
    77 0.73381569710712E-03
    78 0.11899961794983E-02
    79 -.21792310901965E-16
    80 -.67347274808392E-03
    81 -.45177673864557E-03
    82 -.13460901237772E-15
    83 0.17601978914672E-03
    84 0.14208215648977E-04
    85 0.30666073828287E-04
    86 -.44874289477264E-04
    87 -.21323302090399E-15
    88 -.40866257172585E-04
    89 -.72989026504647E-18
    90 0.16760963113012E-03
    91 -.10005614598293E-03
    92 -.67553485147183E-04
    93 0.75387615413099E-16
    94 -.28774399950913E-03
    95 -.13380785652916E-15
    96 0.96203527559707E-05
    97 0.11404741070120E-17
    98 0.21379032148594E-04
    99 -.22140356929515E-04
   100 -.12710627004019E-16
   101 -.42888369442827E-04
   102 0.92332992915883E-05
   103 0.11180520426105E-16
   104 0.14205387936381E-04
   105 -.27581949752314E-16
 Sym=     2a   
 Ene= -.20714970102515E+02
 Spin= Alpha
 Occup= 1.000000
     1 0.10177607178281E-11
     2 -.73972072762867E-12
     3 0.46574846473534E-12
     4 -.10243870302803E-11
     5 -.18484033899789E-03
     6 0.86793759263072E-16
     7 0.66493305566830E-13
     8 0.15977416683078E-02
     9 -.56180820856024E-15
    10 -.71536070339731E-12
    11 -.20068144746663E-03
    12 0.36108119343837E-15
    13 -.41059945931152E-12
    14 -.19202024800101E-13
    15 0.85413043089176E-14
    16 0.10660720491184E-13
    17 -.94518283313915E-17
    18 0.50389222959946E-04
    19 -.20456733397470E-15
    20 -.29296412912817E-12
    21 0.27352256833722E-12
    22 0.19441560790954E-13
    23 0.47544450299926E-16
    24 0.54616788371494E-03
    25 0.18818375546356E-15
    26 0.17591935111679E-04
    27 -.60211124368539E-16
    28 0.24903707076076E-13
    29 -.45917330730872E-04
    30 0.87583763904432E-16
    31 -.54546187050781E-13
    32 0.22315273071584E-04
    33 -.68020636505833E-17
    34 0.21134357902471E-13
    35 -.96124270695349E-18
    36 0.69020333735493E+00
    37 -.63669723591966E-03
    38 0.30338426007293E-01
    39 0.19071195176204E-02
    40 -.12565637273482E-02
    41 0.14833611815872E-15
    42 -.73381569627343E-03
    43 0.11899961781901E-02
    44 -.15223839567773E-15
    45 0.67347274728648E-03
    46 -.45177673887489E-03
    47 0.26950786362109E-15
    48 -.17601978914696E-03
    49 -.14208215665147E-04
    50 -.30666073769098E-04
    51 0.44874289434245E-04
    52 0.30468364762695E-16
    53 -.40866257130905E-04
    54 -.13437302120273E-15
    55 -.16760963085851E-03
    56 0.10005614578871E-03
    57 0.67553485069806E-04
    58 0.14384905750374E-15
    59 -.28774399917423E-03
    60 -.11098968636609E-16
    61 0.96203527401385E-05
    62 0.32404328607295E-16
    63 -.21379032135617E-04
    64 -.22140356896534E-04
    65 -.82888983751254E-17
    66 0.42888369404154E-04
    67 0.92332992798483E-05
    68 -.35186070543566E-16
    69 -.14205387915119E-04
    70 -.76747366721590E-16
    71 -.69020333829657E+00
    72 0.63669723618391E-03
    73 -.30338426048585E-01
    74 -.19071195185573E-02
    75 -.12565637290696E-02
    76 0.38889044275506E-15
    77 0.73381569730395E-03
    78 0.11899961798032E-02
    79 -.11387805281887E-15
    80 -.67347274826984E-03
    81 -.45177673859397E-03
    82 -.38825384847985E-15
    83 0.17601978914493E-03
    84 0.14208215644967E-04
    85 0.30666073842425E-04
    86 -.44874289487393E-04
    87 0.14090012725167E-16
    88 -.40866257182168E-04
    89 0.12951459733801E-15
    90 0.16760963119359E-03
    91 -.10005614602880E-03
    92 -.67553485164798E-04
    93 -.60621348320525E-16
    94 -.28774399958774E-03
    95 -.18105771570087E-15
    96 0.96203527592654E-05
    97 -.96645931184343E-18
    98 0.21379032151565E-04
    99 -.22140356937071E-04
   100 -.39210584430653E-16
   101 -.42888369451808E-04
   102 0.92332992947239E-05
   103 0.40507225661915E-16
   104 0.14205387941376E-04
   105 0.80376761530982E-16
 Sym=     3a   
 Ene= -.20714914219092E+02
 Spin= Alpha
 Occup= 1.000000
     1 -.15775997854997E-02
     2 0.10806836014954E-02
     3 -.68772942865286E-03
     4 0.15100004402289E-02
     5 -.12574375267205E-12
     6 -.10020133306059E-15
     7 -.98171492827571E-04
     8 0.10894750987237E-11
     9 0.41537757217736E-15
    10 0.10495354020970E-02
    11 -.13236593377313E-12
    12 -.45979604324200E-15
    13 0.60799306223905E-03
    14 0.28917086037793E-04
    15 -.12926920958196E-04
    16 -.15990165079596E-04
    17 -.11307498640733E-15
    18 0.34341561464824E-13
    19 -.93106454843356E-16
    20 0.42862956446403E-03
    21 -.40054072686891E-03
    22 -.28088837595126E-04
    23 0.30026794558179E-15
    24 0.37321431048297E-12
    25 0.37484484204734E-15
    26 0.11947307921790E-13
    27 -.72320217290925E-16
    28 -.36479799496017E-04
    29 -.31248472137525E-13
    30 0.77915055031120E-16
    31 0.79980040218190E-04
    32 0.15219476540778E-13
    33 0.19112698174918E-16
    34 -.31037253330996E-04
    35 0.49856264486609E-16
    36 0.69046162173266E+00
    37 -.18785212091017E-03
    38 0.30275364056419E-01
    39 0.67913643266363E-03
    40 -.12619163843864E-02
    41 0.11194551341341E-15
    42 -.75517307029010E-03
    43 0.11826657202638E-02
    44 -.15908617731215E-15
    45 0.72045438254717E-03
    46 0.20839797979978E-03
    47 0.79172268798511E-16
    48 0.19091659279199E-05
    49 0.15003755262104E-04
    50 -.53832969246312E-04
    51 0.38829213984208E-04
    52 -.96679838710638E-16
    53 -.37445363766420E-04
    54 -.75287785192932E-16
    55 -.24631157110880E-03
    56 0.17629132216700E-03
    57 0.70020248941801E-04
    58 0.23360416016196E-15
    59 -.30255668550034E-03
    60 0.21364090592447E-15
    61 0.14145923197811E-04
    62 0.93605789365471E-17
    63 -.11696523589566E-04
    64 -.29834920002794E-04
    65 -.94169564728579E-16
    66 0.34949743871143E-04
    67 0.10856172477916E-04
    68 0.81611030242056E-16
    69 -.19257210763124E-04
    70 -.69239511795520E-16
    71 0.69046162079137E+00
    72 -.18785212004383E-03
    73 0.30275364015043E-01
    74 0.67913643007237E-03
    75 0.12619163826735E-02
    76 -.40627011019697E-15
    77 -.75517306928973E-03
    78 -.11826657186407E-02
    79 0.37664987442349E-15
    80 0.72045438162949E-03
    81 -.20839798041161E-03
    82 -.28707426521130E-17
    83 0.19091661647633E-05
    84 0.15003755281558E-04
    85 -.53832969204593E-04
    86 0.38829213923034E-04
    87 0.12259564567402E-16
    88 0.37445363710961E-04
    89 -.55492044372335E-16
    90 -.24631157088011E-03
    91 0.17629132203040E-03
    92 0.70020248849702E-04
    93 -.28776771657298E-16
    94 0.30255668510773E-03
    95 0.21213013508034E-15
    96 -.14145923184684E-04
    97 -.69913104286642E-16
    98 -.11696523560410E-04
    99 0.29834919972560E-04
   100 0.73582205861605E-16
   101 0.34949743812620E-04
   102 -.10856172465294E-04
   103 0.20216066360174E-16
   104 -.19257210743717E-04
   105 -.25437761825638E-16
 Sym=     3a   
 Ene= -.20714914219092E+02
 Spin= Beta
 Occup= 1.000000
     1 -.15775997854746E-02
     2 0.10806836014971E-02
     3 -.68772942865097E-03
     4 0.15100004402194E-02
     5 -.75848668597155E-13
     6 -.55997850611661E-15
     7 -.98171492826789E-04
     8 0.66934631724680E-12
     9 0.17207245922779E-15
    10 0.10495354020965E-02
    11 -.82149200837762E-13
    12 0.39807086609247E-15
    13 0.60799306223561E-03
    14 0.28917086037072E-04
    15 -.12926920958206E-04
    16 -.15990165078866E-04
    17 -.82130448087490E-16
    18 0.21982539620270E-13
    19 -.79682893906385E-16
    20 0.42862956446442E-03
    21 -.40054072686893E-03
    22 -.28088837595487E-04
    23 0.28076602105616E-16
    24 0.22729942889527E-12
    25 0.26041765610973E-15
    26 0.73641119820168E-14
    27 -.50313917621353E-16
    28 -.36479799495891E-04
    29 -.18855401342116E-13
    30 0.57676219279984E-16
    31 0.79980040217940E-04
    32 0.89754083506899E-14
    33 0.98269847294181E-17
    34 -.31037253330916E-04
    35 -.24769091930799E-16
    36 0.69046162155403E+00
    37 -.18785212073129E-03
    38 0.30275364048556E-01
    39 0.67913643217047E-03
    40 -.12619163840596E-02
    41 0.11863013666181E-15
    42 -.75517307009913E-03
    43 0.11826657199501E-02
    44 -.24261112217179E-15
    45 0.72045438237177E-03
    46 0.20839797991459E-03
    47 -.54260088349840E-16
    48 0.19091659728021E-05
    49 0.15003755266200E-04
    50 -.53832969238892E-04
    51 0.38829213972692E-04
    52 -.23810528109819E-15
    53 -.37445363755526E-04
    54 -.17362063393821E-16
    55 -.24631157106479E-03
    56 0.17629132214107E-03
    57 0.70020248923712E-04
    58 0.18163725719845E-15
    59 -.30255668542510E-03
    60 0.92212525553416E-16
    61 0.14145923195214E-04
    62 0.69395223290805E-16
    63 -.11696523583855E-04
    64 -.29834919997050E-04
    65 -.11175833607560E-15
    66 0.34949743859667E-04
    67 0.10856172475657E-04
    68 0.18654874120391E-16
    69 -.19257210759310E-04
    70 -.37003944585070E-16
    71 0.69046162097001E+00
    72 -.18785212022194E-03
    73 0.30275364022905E-01
    74 0.67913643057158E-03
    75 0.12619163829991E-02
    76 0.38942817154783E-16
    77 -.75517306947987E-03
    78 -.11826657189537E-02
    79 0.11988250850940E-15
    80 0.72045438180554E-03
    81 -.20839798029110E-03
    82 -.53027528337209E-15
    83 0.19091661191574E-05
    84 0.15003755277507E-04
    85 -.53832969211876E-04
    86 0.38829213934370E-04
    87 0.11302724601870E-15
    88 0.37445363721950E-04
    89 -.14254222855206E-16
    90 -.24631157092449E-03
    91 0.17629132205684E-03
    92 0.70020248867652E-04
    93 0.24786513412178E-16
    94 0.30255668518214E-03
    95 0.27454147324097E-15
    96 -.14145923187309E-04
    97 -.29974444604647E-17
    98 -.11696523566061E-04
    99 0.29834919978475E-04
   100 -.16548320259007E-16
   101 0.34949743824011E-04
   102 -.10856172467686E-04
   103 0.20569814002434E-16
   104 -.19257210747526E-04
   105 0.37280338658096E-16
 Sym=     4a   
 Ene= -.17006410413333E+01
 Spin= Alpha
 Occup= 1.000000
     1 0.15446931827617E-02
     2 0.44428218883946E+00
     3 0.11846828932144E+00
     4 0.19402680455055E+00
     5 -.14265932185564E-14
     6 0.94617225030452E-15
     7 0.48273131452929E-01
     8 -.22963402013243E-14
     9 -.19427740619597E-15
    10 0.70467676109192E-01
    11 0.17253397061739E-13
    12 -.17437926948178E-14
    13 0.16831558688205E-01
    14 0.26474576657376E-02
    15 -.28065526145670E-02
    16 0.15909494882937E-03
    17 0.64526968116347E-16
    18 -.67669883206870E-15
    19 0.92353605647223E-16
    20 0.60310531294218E-02
    21 -.61652638192612E-02
    22 0.13421068983932E-03
    23 0.15861544117078E-15
    24 0.33431507537231E-14
    25 0.37168571097610E-15
    26 0.94628096888914E-16
    27 0.58992019927192E-16
    28 -.87637601717772E-03
    29 -.23195684750951E-15
    30 -.41840680308329E-16
    31 0.17105542167076E-02
    32 0.10499993317448E-15
    33 -.37305419704005E-16
    34 -.53477240775167E-03
    35 0.19145220333824E-16
    36 -.11602784231167E-02
    37 0.22087879865690E+00
    38 0.56105746054744E-01
    39 0.84892863019719E-01
    40 -.42072647253311E-01
    41 0.37335562806461E-15
    42 -.22811115027853E-01
    43 -.59663412173677E-01
    44 -.10626354861639E-14
    45 -.31981590138176E-01
    46 -.64127528875716E-02
    47 0.81597411399987E-15
    48 -.48640761107749E-02
    49 0.22171271160017E-02
    50 -.17788614107745E-02
    51 -.43826570522711E-03
    52 0.32980202881953E-16
    53 0.24470077925132E-02
    54 -.12265642096350E-15
    55 0.49640225440114E-02
    56 -.34117973673050E-02
    57 -.15522251767064E-02
    58 0.19240368425740E-15
    59 0.61178928037812E-02
    60 -.66539514802713E-16
    61 -.29644709024348E-03
    62 0.36373134183537E-16
    63 0.58245283537070E-03
    64 0.46501113530652E-03
    65 -.11775252436718E-15
    66 -.10237519478157E-02
    67 -.67285627996663E-04
    68 0.68952844013709E-16
    69 0.24230946766984E-03
    70 0.19352725265833E-16
    71 -.11602784231166E-02
    72 0.22087879865690E+00
    73 0.56105746054743E-01
    74 0.84892863019753E-01
    75 0.42072647253312E-01
    76 0.61699903726458E-15
    77 -.22811115027850E-01
    78 0.59663412173681E-01
    79 0.89013287820682E-15
    80 -.31981590138176E-01
    81 0.64127528875866E-02
    82 0.11899301498574E-14
    83 -.48640761107837E-02
    84 0.22171271160024E-02
    85 -.17788614107753E-02
    86 -.43826570522703E-03
    87 0.58499728326013E-16
    88 -.24470077925133E-02
    89 0.14131327606013E-15
    90 0.49640225440130E-02
    91 -.34117973673066E-02
    92 -.15522251767065E-02
    93 -.10648149663523E-15
    94 -.61178928037823E-02
    95 -.30168691137715E-16
    96 0.29644709024350E-03
    97 0.43493285510744E-16
    98 0.58245283537077E-03
    99 -.46501113530658E-03
   100 -.17265912971368E-16
   101 -.10237519478157E-02
   102 0.67285627996689E-04
   103 -.41086452808730E-16
   104 0.24230946766981E-03
   105 -.68290488273833E-16
 Sym=     4a   
 Ene= -.17006410413332E+01
 Spin= Beta
 Occup= 1.000000
     1 0.15446931827627E-02
     2 0.44428218883945E+00
     3 0.11846828932144E+00
     4 0.19402680455057E+00
     5 -.48034493049798E-14
     6 0.72759927301634E-15
     7 0.48273131452932E-01
     8 -.66717464886068E-14
     9 0.40784586385948E-15
    10 0.70467676109197E-01
    11 0.83839185593959E-14
    12 0.90173143669350E-15
    13 0.16831558688216E-01
    14 0.26474576657374E-02
    15 -.28065526145670E-02
    16 0.15909494882961E-03
    17 -.25183270448516E-15
    18 -.23411069163654E-15
    19 0.16138053710835E-15
    20 0.60310531294231E-02
    21 -.61652638192609E-02
    22 0.13421068983773E-03
    23 -.25162226949085E-15
    24 0.70809094753811E-15
    25 -.56282367796055E-16
    26 0.11872452560682E-16
    27 0.22482662106412E-16
    28 -.87637601717785E-03
    29 -.20344451631244E-16
    30 0.61070635642408E-16
    31 0.17105542167079E-02
    32 0.44158850400480E-17
    33 -.91234292113466E-16
    34 -.53477240775183E-03
    35 -.10921940802038E-16
    36 -.11602784231184E-02
    37 0.22087879865688E+00
    38 0.56105746054740E-01
    39 0.84892863019713E-01
    40 -.42072647253312E-01
    41 0.64592899354805E-15
    42 -.22811115027849E-01
    43 -.59663412173674E-01
    44 -.58046379600611E-15
    45 -.31981590138167E-01
    46 -.64127528875751E-02
    47 -.25957122066077E-15
    48 -.48640761107764E-02
    49 0.22171271160021E-02
    50 -.17788614107747E-02
    51 -.43826570522743E-03
    52 -.13907576534589E-15
    53 0.24470077925136E-02
    54 0.22801112193711E-15
    55 0.49640225440097E-02
    56 -.34117973673051E-02
    57 -.15522251767046E-02
    58 -.41649992675158E-16
    59 0.61178928037800E-02
    60 -.51695098255291E-16
    61 -.29644709024337E-03
    62 -.37864930950966E-16
    63 0.58245283537057E-03
    64 0.46501113530613E-03
    65 -.33408575519120E-16
    66 -.10237519478155E-02
    67 -.67285627996414E-04
    68 0.84209711260937E-16
    69 0.24230946766984E-03
    70 0.19027737123381E-16
    71 -.11602784231161E-02
    72 0.22087879865692E+00
    73 0.56105746054749E-01
    74 0.84892863019737E-01
    75 0.42072647253313E-01
    76 0.24290168356282E-15
    77 -.22811115027853E-01
    78 0.59663412173679E-01
    79 -.51184264945854E-15
    80 -.31981590138174E-01
    81 0.64127528875763E-02
    82 -.64819164387795E-15
    83 -.48640761107805E-02
    84 0.22171271160022E-02
    85 -.17788614107742E-02
    86 -.43826570522795E-03
    87 -.60513679724451E-16
    88 -.24470077925135E-02
    89 -.53077003998208E-16
    90 0.49640225440092E-02
    91 -.34117973673042E-02
    92 -.15522251767051E-02
    93 -.15950332664631E-15
    94 -.61178928037812E-02
    95 0.44492079899753E-15
    96 0.29644709024346E-03
    97 -.50626203747652E-17
    98 0.58245283537075E-03
    99 -.46501113530649E-03
   100 -.45628855617398E-16
   101 -.10237519478155E-02
   102 0.67285627996658E-04
   103 0.52421073598748E-16
   104 0.24230946766965E-03
   105 0.41708419145908E-16
 Sym=     5a   
 Ene= -.14020291197120E+01
 Spin= Beta
 Occup= 1.000000
     1 -.95786221090814E-14
     2 0.33090256880072E-13
     3 0.10565834773942E-13
     4 0.15911059904512E-12
     5 0.13866038794461E+00
     6 -.14281293815486E-14
     7 -.18188372357709E-14
     8 0.18041391125969E+00
     9 -.13221896285440E-14
    10 0.83717619425369E-14
    11 0.36921599320514E-01
    12 -.14929643681432E-15
    13 0.47235134504947E-13
    14 -.70659156037310E-15
    15 0.63997843224970E-15
    16 0.66613128123398E-16
    17 0.16336035207521E-15
    18 0.60113353419195E-02
    19 -.38967211900523E-16
    20 0.73377686946689E-14
    21 -.78785707742521E-14
    22 0.54080207958325E-15
    23 -.82051501146140E-16
    24 0.15038316438894E-01
    25 -.12161242996028E-15
    26 0.44745841304399E-03
    27 0.37789935653472E-16
    28 -.59281488657611E-15
    29 -.78796616917531E-03
    30 -.14216981736389E-16
    31 0.11565492670387E-14
    32 0.18763771197299E-03
    33 -.36483537255514E-16
    34 -.36120463636389E-15
    35 -.66936101236591E-16
    36 -.18489436128974E-02
    37 0.36638447122486E+00
    38 0.99088023181242E-01
    39 0.21290573006149E+00
    40 -.22244107171694E-01
    41 -.94212603737653E-15
    42 -.22792884745334E-01
    43 -.35129784316539E-01
    44 -.53212774776825E-15
    45 -.33906923283232E-01
    46 -.12838783665300E-01
    47 -.14588462684642E-14
    48 -.10087922985802E-01
    49 0.84689905312837E-03
    50 -.10729112377180E-02
    51 0.22601218458967E-03
    52 0.19434430296446E-15
    53 0.17016608706552E-02
    54 -.78536467996970E-16
    55 0.22638328687206E-02
    56 -.28086489903669E-02
    57 0.54481612164630E-03
    58 -.24435373060841E-15
    59 0.47981836387352E-02
    60 0.23178939958156E-15